DF-ISE text

Info {
  version   = 1.0
  type      = xyplot
  datasets  = [
    "time"
    "lat2 OuterVoltage" "lat2 InnerVoltage" "lat2 QuasiFermiPotential" "lat2 DisplacementCurrent" "lat2 eCurrent"
    "lat2 hCurrent" "lat2 TotalCurrent" "lat2 Charge" "lat1 OuterVoltage" "lat1 InnerVoltage"
    "lat1 QuasiFermiPotential" "lat1 DisplacementCurrent" "lat1 eCurrent" "lat1 hCurrent" "lat1 TotalCurrent"
    "lat1 Charge" "bgate OuterVoltage" "bgate InnerVoltage" "bgate QuasiFermiPotential" "bgate DisplacementCurrent"
    "bgate eCurrent" "bgate hCurrent" "bgate TotalCurrent" "bgate Charge" "tgate OuterVoltage"
    "tgate InnerVoltage" "tgate QuasiFermiPotential" "tgate DisplacementCurrent" "tgate eCurrent" "tgate hCurrent"
    "tgate TotalCurrent" "tgate Charge" "fgate OuterVoltage" "fgate InnerVoltage" "fgate QuasiFermiPotential"
    "fgate DisplacementCurrent" "fgate eCurrent" "fgate hCurrent" "fgate TotalCurrent" "fgate Charge" ]
  functions = [
    Time
    OuterVoltage InnerVoltage QuasiFermiPotential DisplacementCurrent eCurrent
    hCurrent TotalCurrent Charge OuterVoltage InnerVoltage
    QuasiFermiPotential DisplacementCurrent eCurrent hCurrent TotalCurrent
    Charge OuterVoltage InnerVoltage QuasiFermiPotential DisplacementCurrent
    eCurrent hCurrent TotalCurrent Charge OuterVoltage
    InnerVoltage QuasiFermiPotential DisplacementCurrent eCurrent hCurrent
    TotalCurrent Charge OuterVoltage InnerVoltage QuasiFermiPotential
    DisplacementCurrent eCurrent hCurrent TotalCurrent Charge ]
}

Data {
      0.00000000000000E+00
      1.39993776045034E+00   1.39993776045516E+00   0.00000000000000E+00   0.00000000000000E+00  -7.55439077866741E-21
     -4.81943517690509E-09  -4.81943517691265E-09   2.87936004500089E-15   1.40000000000000E+00   1.39999999999518E+00
      0.00000000000000E+00   0.00000000000000E+00  -7.20856316343212E-21   4.81943847476468E-09   4.81943847475747E-09
      2.85292709873635E-15   1.40000000000000E+00   1.40000000000000E+00   0.00000000000000E+00   0.00000000000000E+00
     -8.24704023222061E-35   8.24704023222061E-35   0.00000000000000E+00   4.42692385367131E-16   0.00000000000000E+00
      0.00000000000000E+00   0.00000000000000E+00   0.00000000000000E+00   0.00000000000000E+00   0.00000000000000E+00
      0.00000000000000E+00  -3.39199399098245E-15   0.00000000000000E+00   0.00000000000000E+00   0.00000000000000E+00
      0.00000000000000E+00   0.00000000000000E+00   0.00000000000000E+00   0.00000000000000E+00  -2.78298553812192E-15
      5.00000000000000E-03
      1.39993725801771E+00   1.39993725802254E+00   0.00000000000000E+00   0.00000000000000E+00  -7.55470876007568E-21
     -4.82834157304010E-09  -4.82834157304766E-09   2.86910899997394E-15   1.40000000000000E+00   1.39999999999517E+00
      0.00000000000000E+00   0.00000000000000E+00  -7.20821491220552E-21   4.82834487100351E-09   4.82834487099631E-09
      2.84288322082649E-15   1.40000000000000E+00   1.40000000000000E+00   0.00000000000000E+00   0.00000000000000E+00
     -8.25173466972582E-35   8.25173466972582E-35   0.00000000000000E+00   4.42660880460708E-16   0.00000000000000E+00
      0.00000000000000E+00   0.00000000000000E+00   0.00000000000000E+00   0.00000000000000E+00   0.00000000000000E+00
      0.00000000000000E+00  -3.39200567184863E-15   7.00000000000000E-03   7.00000000000000E-03   0.00000000000000E+00
      0.00000000000000E+00   0.00000000000000E+00   0.00000000000000E+00   0.00000000000000E+00  -2.76264742941251E-15
      1.00000000000000E-02
      1.39993674238840E+00   1.39993674239324E+00   0.00000000000000E+00   0.00000000000000E+00  -7.55504047382981E-21
     -4.83763028948898E-09  -4.83763028949654E-09   2.85886130622726E-15   1.40000000000000E+00   1.39999999999516E+00
      0.00000000000000E+00   0.00000000000000E+00  -7.20785221017544E-21   4.83763358756218E-09   4.83763358755497E-09
      2.83284264790484E-15   1.40000000000000E+00   1.40000000000000E+00   0.00000000000000E+00   0.00000000000000E+00
     -8.25267555241406E-35   8.25267555241406E-35   0.00000000000000E+00   4.42629096450594E-16   0.00000000000000E+00
      0.00000000000000E+00   0.00000000000000E+00   0.00000000000000E+00   0.00000000000000E+00   0.00000000000000E+00
      0.00000000000000E+00  -3.39201735251845E-15   1.40000000000000E-02   1.40000000000000E-02   0.00000000000000E+00
      0.00000000000000E+00   0.00000000000000E+00   0.00000000000000E+00   0.00000000000000E+00  -2.74231569806425E-15
      1.50000000000000E-02
      1.39993621293469E+00   1.39993621293953E+00   0.00000000000000E+00   0.00000000000000E+00  -7.55538681016850E-21
     -4.84732610977735E-09  -4.84732610978490E-09   2.84861700350931E-15   1.40000000000000E+00   1.39999999999515E+00
      0.00000000000000E+00   0.00000000000000E+00  -7.20747413454677E-21   4.84732940796616E-09   4.84732940795896E-09
      2.82280541983736E-15   1.40000000000000E+00   1.40000000000000E+00   0.00000000000000E+00   0.00000000000000E+00
     -8.25501850745512E-35   8.25501850745512E-35   0.00000000000000E+00   4.42597029151171E-16   0.00000000000000E+00
      0.00000000000000E+00   0.00000000000000E+00   0.00000000000000E+00   0.00000000000000E+00   0.00000000000000E+00
      0.00000000000000E+00  -3.39202903235942E-15   2.10000000000000E-02   2.10000000000000E-02   0.00000000000000E+00
      0.00000000000000E+00   0.00000000000000E+00   0.00000000000000E+00   0.00000000000000E+00  -2.72199042013841E-15
      2.00000000000000E-02
      1.39993566897925E+00   1.39993566898411E+00   0.00000000000000E+00   0.00000000000000E+00  -7.55574874387729E-21
     -4.85745620411257E-09  -4.85745620412013E-09   2.83837613234196E-15   1.40000000000000E+00   1.39999999999514E+00
      0.00000000000000E+00   0.00000000000000E+00  -7.20707967544718E-21   4.85745950242334E-09   4.85745950241613E-09
      2.81277157731678E-15   1.40000000000000E+00   1.40000000000000E+00   0.00000000000000E+00   0.00000000000000E+00
     -8.25152643873635E-35   8.25152643873635E-35   0.00000000000000E+00   4.42564674294763E-16   0.00000000000000E+00
      0.00000000000000E+00   0.00000000000000E+00   0.00000000000000E+00   0.00000000000000E+00   0.00000000000000E+00
      0.00000000000000E+00  -3.39204071067558E-15   2.80000000000000E-02   2.80000000000000E-02   0.00000000000000E+00
      0.00000000000000E+00   0.00000000000000E+00   0.00000000000000E+00   0.00000000000000E+00  -2.70167167327793E-15
      2.50000000000000E-02
      1.39993510983704E+00   1.39993510984191E+00   0.00000000000000E+00   0.00000000000000E+00  -7.55612721716089E-21
     -4.86804675747094E-09  -4.86804675747849E-09   2.82813873413852E-15   1.40000000000000E+00   1.39999999999513E+00
      0.00000000000000E+00   0.00000000000000E+00  -7.20666785523919E-21   4.86805005591067E-09   4.86805005590346E-09
      2.80274116192392E-15   1.40000000000000E+00   1.40000000000000E+00   0.00000000000000E+00   0.00000000000000E+00
     -8.25172030048341E-35   8.25172030048341E-35   0.00000000000000E+00   4.42532027520040E-16   0.00000000000000E+00
      0.00000000000000E+00   0.00000000000000E+00   0.00000000000000E+00   0.00000000000000E+00   0.00000000000000E+00
      0.00000000000000E+00  -3.39205238676455E-15   3.50000000000000E-02   3.50000000000000E-02   0.00000000000000E+00
      0.00000000000000E+00   0.00000000000000E+00   0.00000000000000E+00   0.00000000000000E+00  -2.68135953681793E-15
      3.00000000000000E-02
      1.39993453474249E+00   1.39993453474737E+00   0.00000000000000E+00   0.00000000000000E+00  -7.55652333254984E-21
     -4.87912849462570E-09  -4.87912849463326E-09   2.81790485107187E-15   1.40000000000000E+00   1.39999999999512E+00
      0.00000000000000E+00   0.00000000000000E+00  -7.20623753183006E-21   4.87913179320175E-09   4.87913179319454E-09
      2.79271421609362E-15   1.40000000000000E+00   1.40000000000000E+00   0.00000000000000E+00   0.00000000000000E+00
     -8.25448465895314E-35   8.25448465895314E-35   0.00000000000000E+00   4.42499084385026E-16   0.00000000000000E+00
      0.00000000000000E+00   0.00000000000000E+00   0.00000000000000E+00   0.00000000000000E+00   0.00000000000000E+00
      0.00000000000000E+00  -3.39206405981862E-15   4.20000000000000E-02   4.20000000000000E-02   0.00000000000000E+00
      0.00000000000000E+00   0.00000000000000E+00   0.00000000000000E+00   0.00000000000000E+00  -2.66105409173189E-15
      3.50000000000000E-02
      1.39993394286987E+00   1.39993394287476E+00   0.00000000000000E+00   0.00000000000000E+00  -7.55693829139384E-21
     -4.89073484409623E-09  -4.89073484410378E-09   2.80767452614746E-15   1.40000000000000E+00   1.39999999999511E+00
      0.00000000000000E+00   0.00000000000000E+00  -7.20578746125253E-21   4.89073814281603E-09   4.89073814280882E-09
      2.78269078316013E-15   1.40000000000000E+00   1.40000000000000E+00   0.00000000000000E+00   0.00000000000000E+00
     -8.25093041781105E-35   8.25093041781105E-35   0.00000000000000E+00   4.42465840359928E-16   0.00000000000000E+00
      0.00000000000000E+00   0.00000000000000E+00   0.00000000000000E+00   0.00000000000000E+00   0.00000000000000E+00
      0.00000000000000E+00  -3.39207572895248E-15   4.90000000000000E-02   4.90000000000000E-02   0.00000000000000E+00
      0.00000000000000E+00   0.00000000000000E+00   0.00000000000000E+00   0.00000000000000E+00  -2.64075542071502E-15
      4.00000000000000E-02
      1.39993333329993E+00   1.39993333330483E+00   0.00000000000000E+00   0.00000000000000E+00  -7.55737347581111E-21
     -4.90290430896778E-09  -4.90290430897534E-09   2.79744780334508E-15   1.40000000000000E+00   1.39999999999510E+00
      0.00000000000000E+00   0.00000000000000E+00  -7.20531621396140E-21   4.90290760783993E-09   4.90290760783273E-09
      2.77267090754335E-15   1.40000000000000E+00   1.40000000000000E+00   0.00000000000000E+00   0.00000000000000E+00
     -8.24779228622955E-35   8.24779228622955E-35   0.00000000000000E+00   4.42432290829363E-16   0.00000000000000E+00
      0.00000000000000E+00   0.00000000000000E+00   0.00000000000000E+00   0.00000000000000E+00   0.00000000000000E+00
      0.00000000000000E+00  -3.39208739315797E-15   5.60000000000000E-02   5.60000000000000E-02   0.00000000000000E+00
      0.00000000000000E+00   0.00000000000000E+00   0.00000000000000E+00   0.00000000000000E+00  -2.62046360855981E-15
      4.50000000000000E-02
      1.39993270508718E+00   1.39993270509209E+00   0.00000000000000E+00   0.00000000000000E+00  -7.55783026375419E-21
     -4.91567524482501E-09  -4.91567524483257E-09   2.78722473069845E-15   1.40000000000000E+00   1.39999999999508E+00
      0.00000000000000E+00   0.00000000000000E+00  -7.20482236328804E-21   4.91567854385856E-09   4.91567854385135E-09
      2.76265463773757E-15   1.40000000000000E+00   1.40000000000000E+00   0.00000000000000E+00   0.00000000000000E+00
     -8.25323084894294E-35   8.25323084894294E-35   0.00000000000000E+00   4.42398431041232E-16   0.00000000000000E+00
      0.00000000000000E+00   0.00000000000000E+00   0.00000000000000E+00   0.00000000000000E+00   0.00000000000000E+00
      0.00000000000000E+00  -3.39209905139595E-15   6.30000000000000E-02   6.29999999999999E-02   0.00000000000000E+00
      0.00000000000000E+00   0.00000000000000E+00   0.00000000000000E+00   0.00000000000000E+00  -2.60017874808131E-15
      5.00000000000000E-02
      1.39993205718591E+00   1.39993205719084E+00   0.00000000000000E+00   0.00000000000000E+00  -7.55831021827798E-21
     -4.92909118616774E-09  -4.92909118617529E-09   2.77700535528830E-15   1.40000000000000E+00   1.39999999999507E+00
      0.00000000000000E+00   0.00000000000000E+00  -7.20430429231366E-21   4.92909448537248E-09   4.92909448536528E-09
      2.75264202140589E-15   1.40000000000000E+00   1.40000000000000E+00   0.00000000000000E+00   0.00000000000000E+00
     -8.25331347457707E-35   8.25331347457707E-35   0.00000000000000E+00   4.42364256175532E-16   0.00000000000000E+00
      0.00000000000000E+00   0.00000000000000E+00   0.00000000000000E+00   0.00000000000000E+00   0.00000000000000E+00
      0.00000000000000E+00  -3.39211070249537E-15   7.00000000000000E-02   7.00000000000000E-02   0.00000000000000E+00
      0.00000000000000E+00   0.00000000000000E+00   0.00000000000000E+00   0.00000000000000E+00  -2.57990093037435E-15
      5.50000000000000E-02
      1.39993138845509E+00   1.39993138846003E+00   0.00000000000000E+00   0.00000000000000E+00  -7.55881506565874E-21
     -4.94320017876934E-09  -4.94320017877689E-09   2.76678978809186E-15   1.40000000000000E+00   1.39999999999506E+00
      0.00000000000000E+00   0.00000000000000E+00  -7.20376021601347E-21   4.94320347815559E-09   4.94320347814839E-09
      2.74263316884291E-15   1.40000000000000E+00   1.40000000000000E+00   0.00000000000000E+00   0.00000000000000E+00
     -8.25226436617954E-35   8.25226436617954E-35   0.00000000000000E+00   4.42329760810222E-16   0.00000000000000E+00
      0.00000000000000E+00   0.00000000000000E+00   0.00000000000000E+00   0.00000000000000E+00   0.00000000000000E+00
      0.00000000000000E+00  -3.39212234516037E-15   7.70000000000000E-02   7.69999999999998E-02   0.00000000000000E+00
      0.00000000000000E+00   0.00000000000000E+00   0.00000000000000E+00   0.00000000000000E+00  -2.55963037258462E-15
      6.00000000000000E-02
      1.39993069764763E+00   1.39993069765259E+00   0.00000000000000E+00   0.00000000000000E+00  -7.55934671369885E-21
     -4.95805537578619E-09  -4.95805537579375E-09   2.75657821759441E-15   1.40000000000000E+00   1.39999999999504E+00
      0.00000000000000E+00   0.00000000000000E+00  -7.20318816239743E-21   4.95805867536499E-09   4.95805867535778E-09
      2.73262826616170E-15   1.40000000000000E+00   1.40000000000000E+00   0.00000000000000E+00   0.00000000000000E+00
     -8.25156971086489E-35   8.25156971086489E-35   0.00000000000000E+00   4.42294938806194E-16   0.00000000000000E+00
      0.00000000000000E+00   0.00000000000000E+00   0.00000000000000E+00   0.00000000000000E+00   0.00000000000000E+00
      0.00000000000000E+00  -3.39213397795571E-15   8.40000000000000E-02   8.40000000000000E-02   0.00000000000000E+00
      0.00000000000000E+00   0.00000000000000E+00   0.00000000000000E+00   0.00000000000000E+00  -2.53936744460658E-15
      6.50000000000000E-02
      1.39992998337817E+00   1.39992998338314E+00   0.00000000000000E+00   0.00000000000000E+00  -7.55990732163503E-21
     -4.97371688860787E-09  -4.97371688861543E-09   2.74637069533183E-15   1.40000000000000E+00   1.39999999999503E+00
      0.00000000000000E+00   0.00000000000000E+00  -7.20258590095010E-21   4.97372018839146E-09   4.97372018838426E-09
      2.72262736581587E-15   1.40000000000000E+00   1.40000000000000E+00   0.00000000000000E+00   0.00000000000000E+00
     -8.25336438174103E-35   8.25336438174103E-35   0.00000000000000E+00   4.42259785024579E-16   0.00000000000000E+00
      0.00000000000000E+00   0.00000000000000E+00   0.00000000000000E+00   0.00000000000000E+00   0.00000000000000E+00
      0.00000000000000E+00  -3.39214559926256E-15   9.10000000000000E-02   9.09999999999997E-02   0.00000000000000E+00
      0.00000000000000E+00   0.00000000000000E+00   0.00000000000000E+00   0.00000000000000E+00  -2.51911224690972E-15
      7.00000000000000E-02
      1.39992924417670E+00   1.39992924418169E+00   0.00000000000000E+00   0.00000000000000E+00  -7.56049915220307E-21
     -4.99024776017417E-09  -4.99024776018173E-09   2.73616726809294E-15   1.40000000000000E+00   1.39999999999501E+00
      0.00000000000000E+00   0.00000000000000E+00  -7.20195109335379E-21   4.99025106017584E-09   4.99025106016864E-09
      2.71263051574295E-15   1.40000000000000E+00   1.40000000000000E+00   0.00000000000000E+00   0.00000000000000E+00
     -8.24966737670529E-35   8.24966737670529E-35   0.00000000000000E+00   4.42224294266718E-16   0.00000000000000E+00
      0.00000000000000E+00   0.00000000000000E+00   0.00000000000000E+00   0.00000000000000E+00   0.00000000000000E+00
      0.00000000000000E+00  -3.39215720735198E-15   9.80000000000000E-02   9.80000000000000E-02   0.00000000000000E+00
      0.00000000000000E+00   0.00000000000000E+00   0.00000000000000E+00   0.00000000000000E+00  -2.49886487075063E-15
      7.50000000000000E-02
      1.39992847841340E+00   1.39992847841841E+00   0.00000000000000E+00   0.00000000000000E+00  -7.56112475128149E-21
     -5.00771888992740E-09  -5.00771888993497E-09   2.72596798370733E-15   1.40000000000000E+00   1.39999999999499E+00
      0.00000000000000E+00   0.00000000000000E+00  -7.20128110993573E-21   5.00772219016134E-09   5.00772219015414E-09
      2.70263776511911E-15   1.40000000000000E+00   1.40000000000000E+00   0.00000000000000E+00   0.00000000000000E+00
     -8.25426329122760E-35   8.25426329122760E-35   0.00000000000000E+00   4.42188461239752E-16   0.00000000000000E+00
      0.00000000000000E+00   0.00000000000000E+00   0.00000000000000E+00   0.00000000000000E+00   0.00000000000000E+00
      0.00000000000000E+00  -3.39216880028272E-15   1.05000000000000E-01   1.05000000000000E-01   0.00000000000000E+00
      0.00000000000000E+00   0.00000000000000E+00   0.00000000000000E+00   0.00000000000000E+00  -2.47862540978346E-15
      8.00000000000000E-02
      1.39992768429409E+00   1.39992768429912E+00   0.00000000000000E+00   0.00000000000000E+00  -7.56178694360867E-21
     -5.02620896751088E-09  -5.02620896751844E-09   2.71577289107467E-15   1.40000000000000E+00   1.39999999999497E+00
      0.00000000000000E+00   0.00000000000000E+00  -7.20057303372505E-21   5.02621226799230E-09   5.02621226798510E-09
      2.69264916439499E-15   1.40000000000000E+00   1.40000000000000E+00   0.00000000000000E+00   0.00000000000000E+00
     -8.25094544965439E-35   8.25094544965439E-35   0.00000000000000E+00   4.42152280553739E-16   0.00000000000000E+00
      0.00000000000000E+00   0.00000000000000E+00   0.00000000000000E+00   0.00000000000000E+00   0.00000000000000E+00
      0.00000000000000E+00  -3.39218037589517E-15   1.12000000000000E-01   1.12000000000000E-01   0.00000000000000E+00
      0.00000000000000E+00   0.00000000000000E+00   0.00000000000000E+00   0.00000000000000E+00  -2.45839396012824E-15
      8.50000000000000E-02
      1.39992685983438E+00   1.39992685983943E+00   0.00000000000000E+00   0.00000000000000E+00  -7.56248888019418E-21
     -5.04580579612931E-09  -5.04580579613687E-09   2.70558204014931E-15   1.40000000000000E+00   1.39999999999495E+00
      0.00000000000000E+00   0.00000000000000E+00  -7.19982361172150E-21   5.04580909687531E-09   5.04580909686812E-09
      2.68266476531556E-15   1.40000000000000E+00   1.40000000000000E+00   0.00000000000000E+00   0.00000000000000E+00
     -8.24674041768772E-35   8.24674041768772E-35   0.00000000000000E+00   4.42115746723166E-16   0.00000000000000E+00
      0.00000000000000E+00   0.00000000000000E+00   0.00000000000000E+00   0.00000000000000E+00   0.00000000000000E+00
      0.00000000000000E+00  -3.39219193177628E-15   1.19000000000000E-01   1.19000000000000E-01   0.00000000000000E+00
      0.00000000000000E+00   0.00000000000000E+00   0.00000000000000E+00   0.00000000000000E+00  -2.43817062041175E-15
      9.00000000000000E-02
      1.39992600281223E+00   1.39992600281730E+00   0.00000000000000E+00   0.00000000000000E+00  -7.56323413571155E-21
     -5.06660894918130E-09  -5.06660894918886E-09   2.69539548187895E-15   1.40000000000000E+00   1.39999999999493E+00
      0.00000000000000E+00   0.00000000000000E+00  -7.19902915503714E-21   5.06661225020994E-09   5.06661225020274E-09
      2.67268462092395E-15   1.40000000000000E+00   1.40000000000000E+00   0.00000000000000E+00   0.00000000000000E+00
     -8.25181453812193E-35   8.25181453812193E-35   0.00000000000000E+00   4.42078854172926E-16   0.00000000000000E+00
      0.00000000000000E+00   0.00000000000000E+00   0.00000000000000E+00   0.00000000000000E+00   0.00000000000000E+00
      0.00000000000000E+00  -3.39220346519519E-15   1.26000000000000E-01   1.26000000000000E-01   0.00000000000000E+00
      0.00000000000000E+00   0.00000000000000E+00   0.00000000000000E+00   0.00000000000000E+00  -2.41795549178064E-15
      9.50000000000000E-02
      1.39992511122861E+00   1.39992511123370E+00   0.00000000000000E+00   0.00000000000000E+00  -7.56402556479520E-21
     -5.08869789914929E-09  -5.08869789915685E-09   2.68521326925848E-15   1.40000000000000E+00   1.39999999999491E+00
      0.00000000000000E+00   0.00000000000000E+00  -7.19818670642196E-21   5.08870120048025E-09   5.08870120047305E-09
      2.66270878598759E-15   1.40000000000000E+00   1.40000000000000E+00   0.00000000000000E+00   0.00000000000000E+00
     -8.25363351385236E-35   8.25363351385236E-35   0.00000000000000E+00   4.42041597135402E-16   0.00000000000000E+00
      0.00000000000000E+00   0.00000000000000E+00   0.00000000000000E+00   0.00000000000000E+00   0.00000000000000E+00
      0.00000000000000E+00  -3.39221497373030E-15   1.33000000000000E-01   1.33000000000000E-01   0.00000000000000E+00
      0.00000000000000E+00   0.00000000000000E+00   0.00000000000000E+00   0.00000000000000E+00  -2.39774867865116E-15
      1.00000000000000E-01
      1.39992418194078E+00   1.39992418194590E+00   0.00000000000000E+00   0.00000000000000E+00  -7.56486861933901E-21
     -5.11222462008133E-09  -5.11222462008890E-09   2.67503545438252E-15   1.40000000000000E+00   1.39999999999489E+00
      0.00000000000000E+00   0.00000000000000E+00  -7.19729065232814E-21   5.11222792173659E-09   5.11222792172939E-09
      2.65273731591430E-15   1.40000000000000E+00   1.40000000000000E+00   0.00000000000000E+00   0.00000000000000E+00
     -8.25003630702100E-35   8.25003630702100E-35   0.00000000000000E+00   4.42003969938459E-16   0.00000000000000E+00
      0.00000000000000E+00   0.00000000000000E+00   0.00000000000000E+00   0.00000000000000E+00   0.00000000000000E+00
      0.00000000000000E+00  -3.39222645340921E-15   1.40000000000000E-01   1.40000000000000E-01   0.00000000000000E+00
      0.00000000000000E+00   0.00000000000000E+00   0.00000000000000E+00   0.00000000000000E+00  -2.37755028682606E-15
      1.05000000000000E-01
      1.39992321134493E+00   1.39992321135007E+00   0.00000000000000E+00   0.00000000000000E+00  -7.56576960541193E-21
     -5.13736492188998E-09  -5.13736492189754E-09   2.66486208998878E-15   1.40000000000000E+00   1.39999999999486E+00
      0.00000000000000E+00   0.00000000000000E+00  -7.19633450129662E-21   5.13736822389443E-09   5.13736822388723E-09
      2.64277026736889E-15   1.40000000000000E+00   1.40000000000000E+00   0.00000000000000E+00   0.00000000000000E+00
     -8.24907009672344E-35   8.24907009672344E-35   0.00000000000000E+00   4.41965966854494E-16   0.00000000000000E+00
      0.00000000000000E+00   0.00000000000000E+00   0.00000000000000E+00   0.00000000000000E+00   0.00000000000000E+00
      0.00000000000000E+00  -3.39223789963803E-15   1.47000000000000E-01   1.47000000000000E-01   0.00000000000000E+00
      0.00000000000000E+00   0.00000000000000E+00   0.00000000000000E+00   0.00000000000000E+00  -2.35736042457414E-15
      1.10000000000000E-01
      1.39992219683371E+00   1.39992219683887E+00   0.00000000000000E+00   0.00000000000000E+00  -7.56673217511289E-21
     -5.16422045717144E-09  -5.16422045717901E-09   2.65469323270244E-15   1.40000000000000E+00   1.39999999999484E+00
      0.00000000000000E+00   0.00000000000000E+00  -7.19531446742148E-21   5.16422375955103E-09   5.16422375954383E-09
      2.63280769952643E-15   1.40000000000000E+00   1.40000000000000E+00   0.00000000000000E+00   0.00000000000000E+00
     -8.25173191595744E-35   8.25173191595744E-35   0.00000000000000E+00   4.41927581783870E-16   0.00000000000000E+00
      0.00000000000000E+00   0.00000000000000E+00   0.00000000000000E+00   0.00000000000000E+00   0.00000000000000E+00
      0.00000000000000E+00  -3.39224930918533E-15   1.54000000000000E-01   1.54000000000000E-01   0.00000000000000E+00
      0.00000000000000E+00   0.00000000000000E+00   0.00000000000000E+00   0.00000000000000E+00  -2.33717920482740E-15
      1.15000000000000E-01
      1.39992113441817E+00   1.39992113442336E+00   0.00000000000000E+00   0.00000000000000E+00  -7.56776302243514E-21
     -5.19297779258254E-09  -5.19297779259011E-09   2.64452893787869E-15   1.40000000000000E+00   1.39999999999481E+00
      0.00000000000000E+00   0.00000000000000E+00  -7.19422365159930E-21   5.19298109536690E-09   5.19298109535970E-09
      2.62284967216261E-15   1.40000000000000E+00   1.40000000000000E+00   0.00000000000000E+00   0.00000000000000E+00
     -8.25662685116951E-35   8.25662685116951E-35   0.00000000000000E+00   4.41888808758518E-16   0.00000000000000E+00
      0.00000000000000E+00   0.00000000000000E+00   0.00000000000000E+00   0.00000000000000E+00   0.00000000000000E+00
      0.00000000000000E+00  -3.39226067694560E-15   1.61000000000000E-01   1.61000000000000E-01   0.00000000000000E+00
      0.00000000000000E+00   0.00000000000000E+00   0.00000000000000E+00   0.00000000000000E+00  -2.31700674185422E-15
      1.20000000000000E-01
      1.39992001981215E+00   1.39992001981738E+00   0.00000000000000E+00   0.00000000000000E+00  -7.56886921540215E-21
     -5.22383390615666E-09  -5.22383390616423E-09   2.63436926203353E-15   1.40000000000000E+00   1.39999999999478E+00
      0.00000000000000E+00   0.00000000000000E+00  -7.19305476544804E-21   5.22383720937745E-09   5.22383720937026E-09
      2.61289624660648E-15   1.40000000000000E+00   1.40000000000000E+00   0.00000000000000E+00   0.00000000000000E+00
     -8.25507225324945E-35   8.25507225324945E-35   0.00000000000000E+00   4.41849641704596E-16   0.00000000000000E+00
      0.00000000000000E+00   0.00000000000000E+00   0.00000000000000E+00   0.00000000000000E+00   0.00000000000000E+00
      0.00000000000000E+00  -3.39227199741530E-15   1.68000000000000E-01   1.68000000000000E-01   0.00000000000000E+00
      0.00000000000000E+00   0.00000000000000E+00   0.00000000000000E+00   0.00000000000000E+00  -2.29684315292930E-15
      1.25000000000000E-01
      1.39991884817032E+00   1.39991884817558E+00   0.00000000000000E+00   0.00000000000000E+00  -7.57005877230223E-21
     -5.25701226527731E-09  -5.25701226528488E-09   2.62421426232715E-15   1.40000000000000E+00   1.39999999999474E+00
      0.00000000000000E+00   0.00000000000000E+00  -7.19179954153241E-21   5.25701556897059E-09   5.25701556896340E-09
      2.60294748558383E-15   1.40000000000000E+00   1.40000000000000E+00   0.00000000000000E+00   0.00000000000000E+00
     -8.25980706719238E-35   8.25980706719238E-35   0.00000000000000E+00   4.41810074492975E-16   0.00000000000000E+00
      0.00000000000000E+00   0.00000000000000E+00   0.00000000000000E+00   0.00000000000000E+00   0.00000000000000E+00
      0.00000000000000E+00  -3.39228326433655E-15   1.75000000000000E-01   1.75000000000000E-01   0.00000000000000E+00
      0.00000000000000E+00   0.00000000000000E+00   0.00000000000000E+00   0.00000000000000E+00  -2.27668855806739E-15
      1.30000000000000E-01
      1.39991761399617E+00   1.39991761400146E+00   0.00000000000000E+00   0.00000000000000E+00  -7.57134081665665E-21
     -5.29276714865906E-09  -5.29276714866663E-09   2.61406399642233E-15   1.40000000000000E+00   1.39999999999471E+00
      0.00000000000000E+00   0.00000000000000E+00  -7.19044857367681E-21   5.29277045286408E-09   5.29277045285689E-09
      2.59300345320422E-15   1.40000000000000E+00   1.40000000000000E+00   0.00000000000000E+00   0.00000000000000E+00
     -8.25242979406906E-35   8.25242979406906E-35   0.00000000000000E+00   4.41770100953057E-16   0.00000000000000E+00
      0.00000000000000E+00   0.00000000000000E+00   0.00000000000000E+00   0.00000000000000E+00   0.00000000000000E+00
      0.00000000000000E+00  -3.39229447057206E-15   1.82000000000000E-01   1.81999999999999E-01   0.00000000000000E+00
      0.00000000000000E+00   0.00000000000000E+00   0.00000000000000E+00   0.00000000000000E+00  -2.25654308000756E-15
      1.35000000000000E-01
      1.39991631100860E+00   1.39991631101393E+00   0.00000000000000E+00   0.00000000000000E+00  -7.57272581546079E-21
     -5.33139028024256E-09  -5.33139028025013E-09   2.60391852225455E-15   1.40000000000000E+00   1.39999999999467E+00
      0.00000000000000E+00   0.00000000000000E+00  -7.18899107181729E-21   5.33139358500414E-09   5.33139358499695E-09
      2.58306421491729E-15   1.40000000000000E+00   1.40000000000000E+00   0.00000000000000E+00   0.00000000000000E+00
     -8.25363850067550E-35   8.25363850067550E-35   0.00000000000000E+00   4.41729714895199E-16   0.00000000000000E+00
      0.00000000000000E+00   0.00000000000000E+00   0.00000000000000E+00   0.00000000000000E+00   0.00000000000000E+00
      0.00000000000000E+00  -3.39230560792371E-15   1.89000000000000E-01   1.89000000000001E-01   0.00000000000000E+00
      0.00000000000000E+00   0.00000000000000E+00   0.00000000000000E+00   0.00000000000000E+00  -2.23640684414332E-15
      1.40000000000000E-01
      1.39991493197997E+00   1.39991493198535E+00   0.00000000000000E+00   0.00000000000000E+00  -7.57422586578598E-21
     -5.37321885724636E-09  -5.37321885725393E-09   2.59377789774220E-15   1.40000000000000E+00   1.39999999999463E+00
      0.00000000000000E+00   0.00000000000000E+00  -7.18741456706507E-21   5.37322216261330E-09   5.37322216260611E-09
      2.57312983744941E-15   1.40000000000000E+00   1.40000000000000E+00   0.00000000000000E+00   0.00000000000000E+00
     -8.25208467960188E-35   8.25208467960188E-35   0.00000000000000E+00   4.41688910138900E-16   0.00000000000000E+00
      0.00000000000000E+00   0.00000000000000E+00   0.00000000000000E+00   0.00000000000000E+00   0.00000000000000E+00
      0.00000000000000E+00  -3.39231666691239E-15   1.96000000000000E-01   1.96000000000000E-01   0.00000000000000E+00
      0.00000000000000E+00   0.00000000000000E+00   0.00000000000000E+00   0.00000000000000E+00  -2.21627997841812E-15
      1.45000000000000E-01